h 0.1 0 9 tcp 40 ------- 0 0.0 8.0 0 0
+ 0.11 0 9 tcp 40 ------- 0 0.0 8.0 0 0
- 0.11 0 9 tcp 40 ------- 0 0.0 8.0 0 0
d 0.110004 7 9 tcp 40 ------- 0 0.0 8.0 0 0
d 0.110004 6 9 tcp 40 ------- 0 0.0 8.0 0 0
d 0.110004 5 9 tcp 40 ------- 0 0.0 8.0 0 0
d 0.110004 4 9 tcp 40 ------- 0 0.0 8.0 0 0
d 0.110004 3 9 tcp 40 ------- 0 0.0 8.0 0 0
d 0.110004 2 9 tcp 40 ------- 0 0.0 8.0 0 0
d 0.110004 1 9 tcp 40 ------- 0 0.0 8.0 0 0
r 0.120004 9 8 tcp 40 ------- 0 0.0 8.0 0 0
h 0.120004 8 9 ack 40 ------- 0 8.0 0.0 0 1
+ 0.130004 8 9 ack 40 ------- 0 8.0 0.0 0 1
- 0.130004 8 9 ack 40 ------- 0 8.0 0.0 0 1
d 0.130008 7 9 ack 40 ------- 0 8.0 0.0 0 1
d 0.130008 6 9 ack 40 ------- 0 8.0 0.0 0 1
d 0.130008 5 9 ack 40 ------- 0 8.0 0.0 0 1
d 0.130008 4 9 ack 40 ------- 0 8.0 0.0 0 1
d 0.130008 3 9 ack 40 ------- 0 8.0 0.0 0 1
d 0.130008 2 9 ack 40 ------- 0 8.0 0.0 0 1
d 0.130008 1 9 ack 40 ------- 0 8.0 0.0 0 1
r 0.140008 9 0 ack 40 ------- 0 8.0 0.0 0 1
h 0.140008 0 9 tcp 1040 ------- 0 0.0 8.0 1 2
h 0.140008 0 9 tcp 1040 ------- 0 0.0 8.0 2 3
+ 0.150008 0 9 tcp 1040 ------- 0 0.0 8.0 1 2
- 0.150008 0 9 tcp 1040 ------- 0 0.0 8.0 1 2
+ 0.150008 0 9 tcp 1040 ------- 0 0.0 8.0 2 3
d 0.150012 7 9 tcp 1040 ------- 0 0.0 8.0 1 2
d 0.150012 6 9 tcp 1040 ------- 0 0.0 8.0 1 2
d 0.150012 5 9 tcp 1040 ------- 0 0.0 8.0 1 2
d 0.150012 4 9 tcp 1040 ------- 0 0.0 8.0 1 2
d 0.150012 3 9 tcp 1040 ------- 0 0.0 8.0 1 2
d 0.150012 2 9 tcp 1040 ------- 0 0.0 8.0 1 2
d 0.150012 1 9 tcp 1040 ------- 0 0.0 8.0 1 2
- 0.154424 0 9 tcp 1040 ------- 0 0.0 8.0 2 3
d 0.154428 7 9 tcp 1040 ------- 0 0.0 8.0 2 3
d 0.154428 6 9 tcp 1040 ------- 0 0.0 8.0 2 3
d 0.154428 5 9 tcp 1040 ------- 0 0.0 8.0 2 3
d 0.154428 4 9 tcp 1040 ------- 0 0.0 8.0 2 3
d 0.154428 3 9 tcp 1040 ------- 0 0.0 8.0 2 3
d 0.154428 2 9 tcp 1040 ------- 0 0.0 8.0 2 3
d 0.154428 1 9 tcp 1040 ------- 0 0.0 8.0 2 3
r 0.160012 9 8 tcp 1040 ------- 0 0.0 8.0 1 2
h 0.160012 8 9 ack 40 ------- 0 8.0 0.0 1 4
r 0.164428 9 8 tcp 1040 ------- 0 0.0 8.0 2 3
h 0.164428 8 9 ack 40 ------- 0 8.0 0.0 2 5
+ 0.170012 8 9 ack 40 ------- 0 8.0 0.0 1 4
- 0.170012 8 9 ack 40 ------- 0 8.0 0.0 1 4
d 0.170016 7 9 ack 40 ------- 0 8.0 0.0 1 4
d 0.170016 6 9 ack 40 ------- 0 8.0 0.0 1 4
d 0.170016 5 9 ack 40 ------- 0 8.0 0.0 1 4
d 0.170016 4 9 ack 40 ------- 0 8.0 0.0 1 4
d 0.170016 3 9 ack 40 ------- 0 8.0 0.0 1 4
d 0.170016 2 9 ack 40 ------- 0 8.0 0.0 1 4
d 0.170016 1 9 ack 40 ------- 0 8.0 0.0 1 4
+ 0.174428 8 9 ack 40 ------- 0 8.0 0.0 2 5
- 0.174428 8 9 ack 40 ------- 0 8.0 0.0 2 5
d 0.174432 7 9 ack 40 ------- 0 8.0 0.0 2 5
d 0.174432 6 9 ack 40 ------- 0 8.0 0.0 2 5
d 0.174432 5 9 ack 40 ------- 0 8.0 0.0 2 5
d 0.174432 4 9 ack 40 ------- 0 8.0 0.0 2 5
d 0.174432 3 9 ack 40 ------- 0 8.0 0.0 2 5
d 0.174432 2 9 ack 40 ------- 0 8.0 0.0 2 5
d 0.174432 1 9 ack 40 ------- 0 8.0 0.0 2 5
r 0.180016 9 0 ack 40 ------- 0 8.0 0.0 1 4
h 0.180016 0 9 tcp 1040 ------- 0 0.0 8.0 3 6
h 0.180016 0 9 tcp 1040 ------- 0 0.0 8.0 4 7
r 0.184432 9 0 ack 40 ------- 0 8.0 0.0 2 5
h 0.184432 0 9 tcp 1040 ------- 0 0.0 8.0 5 8
h 0.184432 0 9 tcp 1040 ------- 0 0.0 8.0 6 9
+ 0.190016 0 9 tcp 1040 ------- 0 0.0 8.0 3 6
- 0.190016 0 9 tcp 1040 ------- 0 0.0 8.0 3 6
+ 0.190016 0 9 tcp 1040 ------- 0 0.0 8.0 4 7
d 0.19002 7 9 tcp 1040 ------- 0 0.0 8.0 3 6
d 0.19002 6 9 tcp 1040 ------- 0 0.0 8.0 3 6
d 0.19002 5 9 tcp 1040 ------- 0 0.0 8.0 3 6
d 0.19002 4 9 tcp 1040 ------- 0 0.0 8.0 3 6
d 0.19002 3 9 tcp 1040 ------- 0 0.0 8.0 3 6
d 0.19002 2 9 tcp 1040 ------- 0 0.0 8.0 3 6
d 0.19002 1 9 tcp 1040 ------- 0 0.0 8.0 3 6
+ 0.194432 0 9 tcp 1040 ------- 0 0.0 8.0 5 8
+ 0.194432 0 9 tcp 1040 ------- 0 0.0 8.0 6 9
- 0.194432 0 9 tcp 1040 ------- 0 0.0 8.0 4 7
d 0.194436 7 9 tcp 1040 ------- 0 0.0 8.0 4 7
d 0.194436 6 9 tcp 1040 ------- 0 0.0 8.0 4 7
d 0.194436 5 9 tcp 1040 ------- 0 0.0 8.0 4 7
d 0.194436 4 9 tcp 1040 ------- 0 0.0 8.0 4 7
d 0.194436 3 9 tcp 1040 ------- 0 0.0 8.0 4 7
d 0.194436 2 9 tcp 1040 ------- 0 0.0 8.0 4 7
d 0.194436 1 9 tcp 1040 ------- 0 0.0 8.0 4 7
- 0.198848 0 9 tcp 1040 ------- 0 0.0 8.0 5 8
d 0.198852 7 9 tcp 1040 ------- 0 0.0 8.0 5 8
d 0.198852 6 9 tcp 1040 ------- 0 0.0 8.0 5 8
d 0.198852 5 9 tcp 1040 ------- 0 0.0 8.0 5 8
d 0.198852 4 9 tcp 1040 ------- 0 0.0 8.0 5 8
d 0.198852 3 9 tcp 1040 ------- 0 0.0 8.0 5 8
d 0.198852 2 9 tcp 1040 ------- 0 0.0 8.0 5 8
d 0.198852 1 9 tcp 1040 ------- 0 0.0 8.0 5 8
r 0.20002 9 8 tcp 1040 ------- 0 0.0 8.0 3 6
h 0.20002 8 9 ack 40 ------- 0 8.0 0.0 3 10
- 0.203264 0 9 tcp 1040 ------- 0 0.0 8.0 6 9
d 0.203268 7 9 tcp 1040 ------- 0 0.0 8.0 6 9
d 0.203268 6 9 tcp 1040 ------- 0 0.0 8.0 6 9
d 0.203268 5 9 tcp 1040 ------- 0 0.0 8.0 6 9
d 0.203268 4 9 tcp 1040 ------- 0 0.0 8.0 6 9
d 0.203268 3 9 tcp 1040 ------- 0 0.0 8.0 6 9
d 0.203268 2 9 tcp 1040 ------- 0 0.0 8.0 6 9
d 0.203268 1 9 tcp 1040 ------- 0 0.0 8.0 6 9
r 0.204436 9 8 tcp 1040 ------- 0 0.0 8.0 4 7
h 0.204436 8 9 ack 40 ------- 0 8.0 0.0 4 11
r 0.208852 9 8 tcp 1040 ------- 0 0.0 8.0 5 8
h 0.208852 8 9 ack 40 ------- 0 8.0 0.0 5 12
+ 0.21002 8 9 ack 40 ------- 0 8.0 0.0 3 10
- 0.21002 8 9 ack 40 ------- 0 8.0 0.0 3 10
d 0.210024 7 9 ack 40 ------- 0 8.0 0.0 3 10
d 0.210024 6 9 ack 40 ------- 0 8.0 0.0 3 10
d 0.210024 5 9 ack 40 ------- 0 8.0 0.0 3 10
d 0.210024 4 9 ack 40 ------- 0 8.0 0.0 3 10
d 0.210024 3 9 ack 40 ------- 0 8.0 0.0 3 10
d 0.210024 2 9 ack 40 ------- 0 8.0 0.0 3 10
d 0.210024 1 9 ack 40 ------- 0 8.0 0.0 3 10
r 0.213268 9 8 tcp 1040 ------- 0 0.0 8.0 6 9
h 0.213268 8 9 ack 40 ------- 0 8.0 0.0 6 13
+ 0.214436 8 9 ack 40 ------- 0 8.0 0.0 4 11
- 0.214436 8 9 ack 40 ------- 0 8.0 0.0 4 11
d 0.21444 7 9 ack 40 ------- 0 8.0 0.0 4 11
d 0.21444 6 9 ack 40 ------- 0 8.0 0.0 4 11
d 0.21444 5 9 ack 40 ------- 0 8.0 0.0 4 11
d 0.21444 4 9 ack 40 ------- 0 8.0 0.0 4 11
d 0.21444 3 9 ack 40 ------- 0 8.0 0.0 4 11
d 0.21444 2 9 ack 40 ------- 0 8.0 0.0 4 11
d 0.21444 1 9 ack 40 ------- 0 8.0 0.0 4 11
+ 0.218852 8 9 ack 40 ------- 0 8.0 0.0 5 12
- 0.218852 8 9 ack 40 ------- 0 8.0 0.0 5 12
d 0.218856 7 9 ack 40 ------- 0 8.0 0.0 5 12
d 0.218856 6 9 ack 40 ------- 0 8.0 0.0 5 12
d 0.218856 5 9 ack 40 ------- 0 8.0 0.0 5 12
d 0.218856 4 9 ack 40 ------- 0 8.0 0.0 5 12
d 0.218856 3 9 ack 40 ------- 0 8.0 0.0 5 12
d 0.218856 2 9 ack 40 ------- 0 8.0 0.0 5 12
d 0.218856 1 9 ack 40 ------- 0 8.0 0.0 5 12
r 0.220024 9 0 ack 40 ------- 0 8.0 0.0 3 10
h 0.220024 0 9 tcp 1040 ------- 0 0.0 8.0 7 14
h 0.220024 0 9 tcp 1040 ------- 0 0.0 8.0 8 15
+ 0.223268 8 9 ack 40 ------- 0 8.0 0.0 6 13
- 0.223268 8 9 ack 40 ------- 0 8.0 0.0 6 13
d 0.223272 7 9 ack 40 ------- 0 8.0 0.0 6 13
d 0.223272 6 9 ack 40 ------- 0 8.0 0.0 6 13
d 0.223272 5 9 ack 40 ------- 0 8.0 0.0 6 13
d 0.223272 4 9 ack 40 ------- 0 8.0 0.0 6 13
d 0.223272 3 9 ack 40 ------- 0 8.0 0.0 6 13
d 0.223272 2 9 ack 40 ------- 0 8.0 0.0 6 13
d 0.223272 1 9 ack 40 ------- 0 8.0 0.0 6 13
r 0.22444 9 0 ack 40 ------- 0 8.0 0.0 4 11
h 0.22444 0 9 tcp 1040 ------- 0 0.0 8.0 9 16
h 0.22444 0 9 tcp 1040 ------- 0 0.0 8.0 10 17
r 0.228856 9 0 ack 40 ------- 0 8.0 0.0 5 12
h 0.228856 0 9 tcp 1040 ------- 0 0.0 8.0 11 18
h 0.228856 0 9 tcp 1040 ------- 0 0.0 8.0 12 19
+ 0.230024 0 9 tcp 1040 ------- 0 0.0 8.0 7 14
- 0.230024 0 9 tcp 1040 ------- 0 0.0 8.0 7 14
+ 0.230024 0 9 tcp 1040 ------- 0 0.0 8.0 8 15
d 0.230028 7 9 tcp 1040 ------- 0 0.0 8.0 7 14
d 0.230028 6 9 tcp 1040 ------- 0 0.0 8.0 7 14
d 0.230028 5 9 tcp 1040 ------- 0 0.0 8.0 7 14
d 0.230028 4 9 tcp 1040 ------- 0 0.0 8.0 7 14
d 0.230028 3 9 tcp 1040 ------- 0 0.0 8.0 7 14
d 0.230028 2 9 tcp 1040 ------- 0 0.0 8.0 7 14
d 0.230028 1 9 tcp 1040 ------- 0 0.0 8.0 7 14
r 0.233272 9 0 ack 40 ------- 0 8.0 0.0 6 13
h 0.233272 0 9 tcp 1040 ------- 0 0.0 8.0 13 20
h 0.233272 0 9 tcp 1040 ------- 0 0.0 8.0 14 21
+ 0.23444 0 9 tcp 1040 ------- 0 0.0 8.0 9 16
+ 0.23444 0 9 tcp 1040 ------- 0 0.0 8.0 10 17
- 0.23444 0 9 tcp 1040 ------- 0 0.0 8.0 8 15
d 0.234444 7 9 tcp 1040 ------- 0 0.0 8.0 8 15
d 0.234444 6 9 tcp 1040 ------- 0 0.0 8.0 8 15
d 0.234444 5 9 tcp 1040 ------- 0 0.0 8.0 8 15
d 0.234444 4 9 tcp 1040 ------- 0 0.0 8.0 8 15
d 0.234444 3 9 tcp 1040 ------- 0 0.0 8.0 8 15
d 0.234444 2 9 tcp 1040 ------- 0 0.0 8.0 8 15
d 0.234444 1 9 tcp 1040 ------- 0 0.0 8.0 8 15
+ 0.238856 0 9 tcp 1040 ------- 0 0.0 8.0 11 18
+ 0.238856 0 9 tcp 1040 ------- 0 0.0 8.0 12 19
- 0.238856 0 9 tcp 1040 ------- 0 0.0 8.0 9 16
d 0.23886 7 9 tcp 1040 ------- 0 0.0 8.0 9 16
d 0.23886 6 9 tcp 1040 ------- 0 0.0 8.0 9 16
d 0.23886 5 9 tcp 1040 ------- 0 0.0 8.0 9 16
d 0.23886 4 9 tcp 1040 ------- 0 0.0 8.0 9 16
d 0.23886 3 9 tcp 1040 ------- 0 0.0 8.0 9 16
d 0.23886 2 9 tcp 1040 ------- 0 0.0 8.0 9 16
d 0.23886 1 9 tcp 1040 ------- 0 0.0 8.0 9 16
r 0.240028 9 8 tcp 1040 ------- 0 0.0 8.0 7 14
h 0.240028 8 9 ack 40 ------- 0 8.0 0.0 7 22
+ 0.243272 0 9 tcp 1040 ------- 0 0.0 8.0 13 20
+ 0.243272 0 9 tcp 1040 ------- 0 0.0 8.0 14 21
- 0.243272 0 9 tcp 1040 ------- 0 0.0 8.0 10 17
d 0.243276 7 9 tcp 1040 ------- 0 0.0 8.0 10 17
d 0.243276 6 9 tcp 1040 ------- 0 0.0 8.0 10 17
d 0.243276 5 9 tcp 1040 ------- 0 0.0 8.0 10 17
d 0.243276 4 9 tcp 1040 ------- 0 0.0 8.0 10 17
d 0.243276 3 9 tcp 1040 ------- 0 0.0 8.0 10 17
d 0.243276 2 9 tcp 1040 ------- 0 0.0 8.0 10 17
d 0.243276 1 9 tcp 1040 ------- 0 0.0 8.0 10 17
r 0.244444 9 8 tcp 1040 ------- 0 0.0 8.0 8 15
h 0.244444 8 9 ack 40 ------- 0 8.0 0.0 8 23
- 0.247688 0 9 tcp 1040 ------- 0 0.0 8.0 11 18
d 0.247692 7 9 tcp 1040 ------- 0 0.0 8.0 11 18
d 0.247692 6 9 tcp 1040 ------- 0 0.0 8.0 11 18
d 0.247692 5 9 tcp 1040 ------- 0 0.0 8.0 11 18
d 0.247692 4 9 tcp 1040 ------- 0 0.0 8.0 11 18
d 0.247692 3 9 tcp 1040 ------- 0 0.0 8.0 11 18
d 0.247692 2 9 tcp 1040 ------- 0 0.0 8.0 11 18
d 0.247692 1 9 tcp 1040 ------- 0 0.0 8.0 11 18
r 0.24886 9 8 tcp 1040 ------- 0 0.0 8.0 9 16
h 0.24886 8 9 ack 40 ------- 0 8.0 0.0 9 24
+ 0.250028 8 9 ack 40 ------- 0 8.0 0.0 7 22
- 0.250028 8 9 ack 40 ------- 0 8.0 0.0 7 22
d 0.250032 7 9 ack 40 ------- 0 8.0 0.0 7 22
d 0.250032 6 9 ack 40 ------- 0 8.0 0.0 7 22
d 0.250032 5 9 ack 40 ------- 0 8.0 0.0 7 22
d 0.250032 4 9 ack 40 ------- 0 8.0 0.0 7 22
d 0.250032 3 9 ack 40 ------- 0 8.0 0.0 7 22
d 0.250032 2 9 ack 40 ------- 0 8.0 0.0 7 22
d 0.250032 1 9 ack 40 ------- 0 8.0 0.0 7 22
- 0.252104 0 9 tcp 1040 ------- 0 0.0 8.0 12 19
d 0.252108 7 9 tcp 1040 ------- 0 0.0 8.0 12 19
d 0.252108 6 9 tcp 1040 ------- 0 0.0 8.0 12 19
d 0.252108 5 9 tcp 1040 ------- 0 0.0 8.0 12 19
d 0.252108 4 9 tcp 1040 ------- 0 0.0 8.0 12 19
d 0.252108 3 9 tcp 1040 ------- 0 0.0 8.0 12 19
d 0.252108 2 9 tcp 1040 ------- 0 0.0 8.0 12 19
d 0.252108 1 9 tcp 1040 ------- 0 0.0 8.0 12 19
r 0.253276 9 8 tcp 1040 ------- 0 0.0 8.0 10 17
h 0.253276 8 9 ack 40 ------- 0 8.0 0.0 10 25
+ 0.254444 8 9 ack 40 ------- 0 8.0 0.0 8 23
- 0.254444 8 9 ack 40 ------- 0 8.0 0.0 8 23
d 0.254448 7 9 ack 40 ------- 0 8.0 0.0 8 23
d 0.254448 6 9 ack 40 ------- 0 8.0 0.0 8 23
d 0.254448 5 9 ack 40 ------- 0 8.0 0.0 8 23
d 0.254448 4 9 ack 40 ------- 0 8.0 0.0 8 23
d 0.254448 3 9 ack 40 ------- 0 8.0 0.0 8 23
d 0.254448 2 9 ack 40 ------- 0 8.0 0.0 8 23
d 0.254448 1 9 ack 40 ------- 0 8.0 0.0 8 23
- 0.25652 0 9 tcp 1040 ------- 0 0.0 8.0 13 20
d 0.256524 7 9 tcp 1040 ------- 0 0.0 8.0 13 20
d 0.256524 6 9 tcp 1040 ------- 0 0.0 8.0 13 20
d 0.256524 5 9 tcp 1040 ------- 0 0.0 8.0 13 20
d 0.256524 4 9 tcp 1040 ------- 0 0.0 8.0 13 20
d 0.256524 3 9 tcp 1040 ------- 0 0.0 8.0 13 20
d 0.256524 2 9 tcp 1040 ------- 0 0.0 8.0 13 20
d 0.256524 1 9 tcp 1040 ------- 0 0.0 8.0 13 20
r 0.257692 9 8 tcp 1040 ------- 0 0.0 8.0 11 18
h 0.257692 8 9 ack 40 ------- 0 8.0 0.0 11 26
+ 0.25886 8 9 ack 40 ------- 0 8.0 0.0 9 24
- 0.25886 8 9 ack 40 ------- 0 8.0 0.0 9 24
d 0.258864 7 9 ack 40 ------- 0 8.0 0.0 9 24
d 0.258864 6 9 ack 40 ------- 0 8.0 0.0 9 24
d 0.258864 5 9 ack 40 ------- 0 8.0 0.0 9 24
d 0.258864 4 9 ack 40 ------- 0 8.0 0.0 9 24
d 0.258864 3 9 ack 40 ------- 0 8.0 0.0 9 24
d 0.258864 2 9 ack 40 ------- 0 8.0 0.0 9 24
d 0.258864 1 9 ack 40 ------- 0 8.0 0.0 9 24
r 0.260032 9 0 ack 40 ------- 0 8.0 0.0 7 22
h 0.260032 0 9 tcp 1040 ------- 0 0.0 8.0 15 27
h 0.260032 0 9 tcp 1040 ------- 0 0.0 8.0 16 28
- 0.260936 0 9 tcp 1040 ------- 0 0.0 8.0 14 21
d 0.26094 7 9 tcp 1040 ------- 0 0.0 8.0 14 21
d 0.26094 6 9 tcp 1040 ------- 0 0.0 8.0 14 21
d 0.26094 5 9 tcp 1040 ------- 0 0.0 8.0 14 21
d 0.26094 4 9 tcp 1040 ------- 0 0.0 8.0 14 21
d 0.26094 3 9 tcp 1040 ------- 0 0.0 8.0 14 21
d 0.26094 2 9 tcp 1040 ------- 0 0.0 8.0 14 21
d 0.26094 1 9 tcp 1040 ------- 0 0.0 8.0 14 21
r 0.262108 9 8 tcp 1040 ------- 0 0.0 8.0 12 19
h 0.262108 8 9 ack 40 ------- 0 8.0 0.0 12 29
+ 0.263276 8 9 ack 40 ------- 0 8.0 0.0 10 25
- 0.263276 8 9 ack 40 ------- 0 8.0 0.0 10 25
d 0.26328 7 9 ack 40 ------- 0 8.0 0.0 10 25
d 0.26328 6 9 ack 40 ------- 0 8.0 0.0 10 25
d 0.26328 5 9 ack 40 ------- 0 8.0 0.0 10 25
d 0.26328 4 9 ack 40 ------- 0 8.0 0.0 10 25
d 0.26328 3 9 ack 40 ------- 0 8.0 0.0 10 25
d 0.26328 2 9 ack 40 ------- 0 8.0 0.0 10 25
d 0.26328 1 9 ack 40 ------- 0 8.0 0.0 10 25
r 0.264448 9 0 ack 40 ------- 0 8.0 0.0 8 23
h 0.264448 0 9 tcp 1040 ------- 0 0.0 8.0 17 30
h 0.264448 0 9 tcp 1040 ------- 0 0.0 8.0 18 31
r 0.266524 9 8 tcp 1040 ------- 0 0.0 8.0 13 20
h 0.266524 8 9 ack 40 ------- 0 8.0 0.0 13 32
+ 0.267692 8 9 ack 40 ------- 0 8.0 0.0 11 26
- 0.267692 8 9 ack 40 ------- 0 8.0 0.0 11 26
d 0.267696 7 9 ack 40 ------- 0 8.0 0.0 11 26
d 0.267696 6 9 ack 40 ------- 0 8.0 0.0 11 26
d 0.267696 5 9 ack 40 ------- 0 8.0 0.0 11 26
d 0.267696 4 9 ack 40 ------- 0 8.0 0.0 11 26
d 0.267696 3 9 ack 40 ------- 0 8.0 0.0 11 26
d 0.267696 2 9 ack 40 ------- 0 8.0 0.0 11 26
d 0.267696 1 9 ack 40 ------- 0 8.0 0.0 11 26
r 0.268864 9 0 ack 40 ------- 0 8.0 0.0 9 24
h 0.268864 0 9 tcp 1040 ------- 0 0.0 8.0 19 33
+ 0.270032 0 9 tcp 1040 ------- 0 0.0 8.0 15 27
- 0.270032 0 9 tcp 1040 ------- 0 0.0 8.0 15 27
+ 0.270032 0 9 tcp 1040 ------- 0 0.0 8.0 16 28
d 0.270036 7 9 tcp 1040 ------- 0 0.0 8.0 15 27
d 0.270036 6 9 tcp 1040 ------- 0 0.0 8.0 15 27
d 0.270036 5 9 tcp 1040 ------- 0 0.0 8.0 15 27
d 0.270036 4 9 tcp 1040 ------- 0 0.0 8.0 15 27
d 0.270036 3 9 tcp 1040 ------- 0 0.0 8.0 15 27
d 0.270036 2 9 tcp 1040 ------- 0 0.0 8.0 15 27
d 0.270036 1 9 tcp 1040 ------- 0 0.0 8.0 15 27
r 0.27094 9 8 tcp 1040 ------- 0 0.0 8.0 14 21
h 0.27094 8 9 ack 40 ------- 0 8.0 0.0 14 34
+ 0.272108 8 9 ack 40 ------- 0 8.0 0.0 12 29
- 0.272108 8 9 ack 40 ------- 0 8.0 0.0 12 29
d 0.272112 7 9 ack 40 ------- 0 8.0 0.0 12 29
d 0.272112 6 9 ack 40 ------- 0 8.0 0.0 12 29
d 0.272112 5 9 ack 40 ------- 0 8.0 0.0 12 29
d 0.272112 4 9 ack 40 ------- 0 8.0 0.0 12 29
d 0.272112 3 9 ack 40 ------- 0 8.0 0.0 12 29
d 0.272112 2 9 ack 40 ------- 0 8.0 0.0 12 29
d 0.272112 1 9 ack 40 ------- 0 8.0 0.0 12 29
r 0.27328 9 0 ack 40 ------- 0 8.0 0.0 10 25
h 0.27328 0 9 tcp 1040 ------- 0 0.0 8.0 20 35
+ 0.274448 0 9 tcp 1040 ------- 0 0.0 8.0 17 30
+ 0.274448 0 9 tcp 1040 ------- 0 0.0 8.0 18 31
- 0.274448 0 9 tcp 1040 ------- 0 0.0 8.0 16 28
d 0.274452 7 9 tcp 1040 ------- 0 0.0 8.0 16 28
d 0.274452 6 9 tcp 1040 ------- 0 0.0 8.0 16 28
d 0.274452 5 9 tcp 1040 ------- 0 0.0 8.0 16 28
d 0.274452 4 9 tcp 1040 ------- 0 0.0 8.0 16 28
d 0.274452 3 9 tcp 1040 ------- 0 0.0 8.0 16 28
d 0.274452 2 9 tcp 1040 ------- 0 0.0 8.0 16 28
d 0.274452 1 9 tcp 1040 ------- 0 0.0 8.0 16 28
+ 0.276524 8 9 ack 40 ------- 0 8.0 0.0 13 32
- 0.276524 8 9 ack 40 ------- 0 8.0 0.0 13 32
d 0.276528 7 9 ack 40 ------- 0 8.0 0.0 13 32
d 0.276528 6 9 ack 40 ------- 0 8.0 0.0 13 32
d 0.276528 5 9 ack 40 ------- 0 8.0 0.0 13 32
d 0.276528 4 9 ack 40 ------- 0 8.0 0.0 13 32
d 0.276528 3 9 ack 40 ------- 0 8.0 0.0 13 32
d 0.276528 2 9 ack 40 ------- 0 8.0 0.0 13 32
d 0.276528 1 9 ack 40 ------- 0 8.0 0.0 13 32
r 0.277696 9 0 ack 40 ------- 0 8.0 0.0 11 26
h 0.277696 0 9 tcp 1040 ------- 0 0.0 8.0 21 36
- 0.278864 0 9 tcp 1040 ------- 0 0.0 8.0 17 30
+ 0.278864 0 9 tcp 1040 ------- 0 0.0 8.0 19 33
d 0.278868 7 9 tcp 1040 ------- 0 0.0 8.0 17 30
d 0.278868 6 9 tcp 1040 ------- 0 0.0 8.0 17 30
d 0.278868 5 9 tcp 1040 ------- 0 0.0 8.0 17 30
d 0.278868 4 9 tcp 1040 ------- 0 0.0 8.0 17 30
d 0.278868 3 9 tcp 1040 ------- 0 0.0 8.0 17 30
d 0.278868 2 9 tcp 1040 ------- 0 0.0 8.0 17 30
d 0.278868 1 9 tcp 1040 ------- 0 0.0 8.0 17 30
r 0.280036 9 8 tcp 1040 ------- 0 0.0 8.0 15 27
h 0.280036 8 9 ack 40 ------- 0 8.0 0.0 15 37
+ 0.28094 8 9 ack 40 ------- 0 8.0 0.0 14 34
- 0.28094 8 9 ack 40 ------- 0 8.0 0.0 14 34
d 0.280944 7 9 ack 40 ------- 0 8.0 0.0 14 34
d 0.280944 6 9 ack 40 ------- 0 8.0 0.0 14 34
d 0.280944 5 9 ack 40 ------- 0 8.0 0.0 14 34
d 0.280944 4 9 ack 40 ------- 0 8.0 0.0 14 34
d 0.280944 3 9 ack 40 ------- 0 8.0 0.0 14 34
d 0.280944 2 9 ack 40 ------- 0 8.0 0.0 14 34
d 0.280944 1 9 ack 40 ------- 0 8.0 0.0 14 34
r 0.282112 9 0 ack 40 ------- 0 8.0 0.0 12 29
h 0.282112 0 9 tcp 1040 ------- 0 0.0 8.0 22 38
- 0.28328 0 9 tcp 1040 ------- 0 0.0 8.0 18 31
+ 0.28328 0 9 tcp 1040 ------- 0 0.0 8.0 20 35
d 0.283284 7 9 tcp 1040 ------- 0 0.0 8.0 18 31
d 0.283284 6 9 tcp 1040 ------- 0 0.0 8.0 18 31
d 0.283284 5 9 tcp 1040 ------- 0 0.0 8.0 18 31
d 0.283284 4 9 tcp 1040 ------- 0 0.0 8.0 18 31
d 0.283284 3 9 tcp 1040 ------- 0 0.0 8.0 18 31
d 0.283284 2 9 tcp 1040 ------- 0 0.0 8.0 18 31
d 0.283284 1 9 tcp 1040 ------- 0 0.0 8.0 18 31
r 0.284452 9 8 tcp 1040 ------- 0 0.0 8.0 16 28
h 0.284452 8 9 ack 40 ------- 0 8.0 0.0 16 39
r 0.286528 9 0 ack 40 ------- 0 8.0 0.0 13 32
h 0.286528 0 9 tcp 1040 ------- 0 0.0 8.0 23 40
- 0.287696 0 9 tcp 1040 ------- 0 0.0 8.0 19 33
+ 0.287696 0 9 tcp 1040 ------- 0 0.0 8.0 21 36
d 0.2877 7 9 tcp 1040 ------- 0 0.0 8.0 19 33
d 0.2877 6 9 tcp 1040 ------- 0 0.0 8.0 19 33
d 0.2877 5 9 tcp 1040 ------- 0 0.0 8.0 19 33
d 0.2877 4 9 tcp 1040 ------- 0 0.0 8.0 19 33
d 0.2877 3 9 tcp 1040 ------- 0 0.0 8.0 19 33
d 0.2877 2 9 tcp 1040 ------- 0 0.0 8.0 19 33
d 0.2877 1 9 tcp 1040 ------- 0 0.0 8.0 19 33
r 0.288868 9 8 tcp 1040 ------- 0 0.0 8.0 17 30
h 0.288868 8 9 ack 40 ------- 0 8.0 0.0 17 41
+ 0.290036 8 9 ack 40 ------- 0 8.0 0.0 15 37
- 0.290036 8 9 ack 40 ------- 0 8.0 0.0 15 37
d 0.29004 7 9 ack 40 ------- 0 8.0 0.0 15 37
d 0.29004 6 9 ack 40 ------- 0 8.0 0.0 15 37
d 0.29004 5 9 ack 40 ------- 0 8.0 0.0 15 37
d 0.29004 4 9 ack 40 ------- 0 8.0 0.0 15 37
d 0.29004 3 9 ack 40 ------- 0 8.0 0.0 15 37
d 0.29004 2 9 ack 40 ------- 0 8.0 0.0 15 37
d 0.29004 1 9 ack 40 ------- 0 8.0 0.0 15 37
r 0.290944 9 0 ack 40 ------- 0 8.0 0.0 14 34
h 0.290944 0 9 tcp 1040 ------- 0 0.0 8.0 24 42
- 0.292112 0 9 tcp 1040 ------- 0 0.0 8.0 20 35
+ 0.292112 0 9 tcp 1040 ------- 0 0.0 8.0 22 38
d 0.292116 7 9 tcp 1040 ------- 0 0.0 8.0 20 35
d 0.292116 6 9 tcp 1040 ------- 0 0.0 8.0 20 35
d 0.292116 5 9 tcp 1040 ------- 0 0.0 8.0 20 35
d 0.292116 4 9 tcp 1040 ------- 0 0.0 8.0 20 35
d 0.292116 3 9 tcp 1040 ------- 0 0.0 8.0 20 35
d 0.292116 2 9 tcp 1040 ------- 0 0.0 8.0 20 35
d 0.292116 1 9 tcp 1040 ------- 0 0.0 8.0 20 35
r 0.293284 9 8 tcp 1040 ------- 0 0.0 8.0 18 31
h 0.293284 8 9 ack 40 ------- 0 8.0 0.0 18 43
+ 0.294452 8 9 ack 40 ------- 0 8.0 0.0 16 39
- 0.294452 8 9 ack 40 ------- 0 8.0 0.0 16 39
d 0.294456 7 9 ack 40 ------- 0 8.0 0.0 16 39
d 0.294456 6 9 ack 40 ------- 0 8.0 0.0 16 39
d 0.294456 5 9 ack 40 ------- 0 8.0 0.0 16 39
d 0.294456 4 9 ack 40 ------- 0 8.0 0.0 16 39
d 0.294456 3 9 ack 40 ------- 0 8.0 0.0 16 39
d 0.294456 2 9 ack 40 ------- 0 8.0 0.0 16 39
d 0.294456 1 9 ack 40 ------- 0 8.0 0.0 16 39
- 0.296528 0 9 tcp 1040 ------- 0 0.0 8.0 21 36
+ 0.296528 0 9 tcp 1040 ------- 0 0.0 8.0 23 40
d 0.296532 7 9 tcp 1040 ------- 0 0.0 8.0 21 36
d 0.296532 6 9 tcp 1040 ------- 0 0.0 8.0 21 36
d 0.296532 5 9 tcp 1040 ------- 0 0.0 8.0 21 36
d 0.296532 4 9 tcp 1040 ------- 0 0.0 8.0 21 36
d 0.296532 3 9 tcp 1040 ------- 0 0.0 8.0 21 36
d 0.296532 2 9 tcp 1040 ------- 0 0.0 8.0 21 36
d 0.296532 1 9 tcp 1040 ------- 0 0.0 8.0 21 36
r 0.2977 9 8 tcp 1040 ------- 0 0.0 8.0 19 33
h 0.2977 8 9 ack 40 ------- 0 8.0 0.0 19 44
+ 0.298868 8 9 ack 40 ------- 0 8.0 0.0 17 41
- 0.298868 8 9 ack 40 ------- 0 8.0 0.0 17 41
d 0.298872 7 9 ack 40 ------- 0 8.0 0.0 17 41
d 0.298872 6 9 ack 40 ------- 0 8.0 0.0 17 41
d 0.298872 5 9 ack 40 ------- 0 8.0 0.0 17 41
d 0.298872 4 9 ack 40 ------- 0 8.0 0.0 17 41
d 0.298872 3 9 ack 40 ------- 0 8.0 0.0 17 41
d 0.298872 2 9 ack 40 ------- 0 8.0 0.0 17 41
d 0.298872 1 9 ack 40 ------- 0 8.0 0.0 17 41
r 0.30004 9 0 ack 40 ------- 0 8.0 0.0 15 37
h 0.30004 0 9 tcp 1040 ------- 0 0.0 8.0 25 45
- 0.300944 0 9 tcp 1040 ------- 0 0.0 8.0 22 38
+ 0.300944 0 9 tcp 1040 ------- 0 0.0 8.0 24 42
d 0.300948 7 9 tcp 1040 ------- 0 0.0 8.0 22 38
d 0.300948 6 9 tcp 1040 ------- 0 0.0 8.0 22 38
d 0.300948 5 9 tcp 1040 ------- 0 0.0 8.0 22 38
d 0.300948 4 9 tcp 1040 ------- 0 0.0 8.0 22 38
d 0.300948 3 9 tcp 1040 ------- 0 0.0 8.0 22 38
d 0.300948 2 9 tcp 1040 ------- 0 0.0 8.0 22 38
d 0.300948 1 9 tcp 1040 ------- 0 0.0 8.0 22 38
r 0.302116 9 8 tcp 1040 ------- 0 0.0 8.0 20 35
h 0.302116 8 9 ack 40 ------- 0 8.0 0.0 20 46
+ 0.303284 8 9 ack 40 ------- 0 8.0 0.0 18 43
- 0.303284 8 9 ack 40 ------- 0 8.0 0.0 18 43
d 0.303288 7 9 ack 40 ------- 0 8.0 0.0 18 43
d 0.303288 6 9 ack 40 ------- 0 8.0 0.0 18 43
d 0.303288 5 9 ack 40 ------- 0 8.0 0.0 18 43
d 0.303288 4 9 ack 40 ------- 0 8.0 0.0 18 43
d 0.303288 3 9 ack 40 ------- 0 8.0 0.0 18 43
d 0.303288 2 9 ack 40 ------- 0 8.0 0.0 18 43
d 0.303288 1 9 ack 40 ------- 0 8.0 0.0 18 43
r 0.304456 9 0 ack 40 ------- 0 8.0 0.0 16 39
h 0.304456 0 9 tcp 1040 ------- 0 0.0 8.0 26 47
- 0.30536 0 9 tcp 1040 ------- 0 0.0 8.0 23 40
d 0.305364 7 9 tcp 1040 ------- 0 0.0 8.0 23 40
d 0.305364 6 9 tcp 1040 ------- 0 0.0 8.0 23 40
d 0.305364 5 9 tcp 1040 ------- 0 0.0 8.0 23 40
d 0.305364 4 9 tcp 1040 ------- 0 0.0 8.0 23 40
d 0.305364 3 9 tcp 1040 ------- 0 0.0 8.0 23 40
d 0.305364 2 9 tcp 1040 ------- 0 0.0 8.0 23 40
d 0.305364 1 9 tcp 1040 ------- 0 0.0 8.0 23 40
r 0.306532 9 8 tcp 1040 ------- 0 0.0 8.0 21 36
h 0.306532 8 9 ack 40 ------- 0 8.0 0.0 21 48
+ 0.3077 8 9 ack 40 ------- 0 8.0 0.0 19 44
- 0.3077 8 9 ack 40 ------- 0 8.0 0.0 19 44
d 0.307704 7 9 ack 40 ------- 0 8.0 0.0 19 44
d 0.307704 6 9 ack 40 ------- 0 8.0 0.0 19 44
d 0.307704 5 9 ack 40 ------- 0 8.0 0.0 19 44
d 0.307704 4 9 ack 40 ------- 0 8.0 0.0 19 44
d 0.307704 3 9 ack 40 ------- 0 8.0 0.0 19 44
d 0.307704 2 9 ack 40 ------- 0 8.0 0.0 19 44
d 0.307704 1 9 ack 40 ------- 0 8.0 0.0 19 44
r 0.308872 9 0 ack 40 ------- 0 8.0 0.0 17 41
h 0.308872 0 9 tcp 1040 ------- 0 0.0 8.0 27 49
- 0.309776 0 9 tcp 1040 ------- 0 0.0 8.0 24 42
d 0.30978 7 9 tcp 1040 ------- 0 0.0 8.0 24 42
d 0.30978 6 9 tcp 1040 ------- 0 0.0 8.0 24 42
d 0.30978 5 9 tcp 1040 ------- 0 0.0 8.0 24 42
d 0.30978 4 9 tcp 1040 ------- 0 0.0 8.0 24 42
d 0.30978 3 9 tcp 1040 ------- 0 0.0 8.0 24 42
d 0.30978 2 9 tcp 1040 ------- 0 0.0 8.0 24 42
d 0.30978 1 9 tcp 1040 ------- 0 0.0 8.0 24 42
+ 0.31004 0 9 tcp 1040 ------- 0 0.0 8.0 25 45
r 0.310948 9 8 tcp 1040 ------- 0 0.0 8.0 22 38
h 0.310948 8 9 ack 40 ------- 0 8.0 0.0 22 50
+ 0.312116 8 9 ack 40 ------- 0 8.0 0.0 20 46
- 0.312116 8 9 ack 40 ------- 0 8.0 0.0 20 46
d 0.31212 7 9 ack 40 ------- 0 8.0 0.0 20 46
d 0.31212 6 9 ack 40 ------- 0 8.0 0.0 20 46
d 0.31212 5 9 ack 40 ------- 0 8.0 0.0 20 46
d 0.31212 4 9 ack 40 ------- 0 8.0 0.0 20 46
d 0.31212 3 9 ack 40 ------- 0 8.0 0.0 20 46
d 0.31212 2 9 ack 40 ------- 0 8.0 0.0 20 46
d 0.31212 1 9 ack 40 ------- 0 8.0 0.0 20 46
r 0.313288 9 0 ack 40 ------- 0 8.0 0.0 18 43
h 0.313288 0 9 tcp 1040 ------- 0 0.0 8.0 28 51
- 0.314192 0 9 tcp 1040 ------- 0 0.0 8.0 25 45
d 0.314196 7 9 tcp 1040 ------- 0 0.0 8.0 25 45
d 0.314196 6 9 tcp 1040 ------- 0 0.0 8.0 25 45
d 0.314196 5 9 tcp 1040 ------- 0 0.0 8.0 25 45
d 0.314196 4 9 tcp 1040 ------- 0 0.0 8.0 25 45
d 0.314196 3 9 tcp 1040 ------- 0 0.0 8.0 25 45
d 0.314196 2 9 tcp 1040 ------- 0 0.0 8.0 25 45
d 0.314196 1 9 tcp 1040 ------- 0 0.0 8.0 25 45
+ 0.314456 0 9 tcp 1040 ------- 0 0.0 8.0 26 47
r 0.315364 9 8 tcp 1040 ------- 0 0.0 8.0 23 40
h 0.315364 8 9 ack 40 ------- 0 8.0 0.0 23 52
+ 0.316532 8 9 ack 40 ------- 0 8.0 0.0 21 48
- 0.316532 8 9 ack 40 ------- 0 8.0 0.0 21 48
d 0.316536 7 9 ack 40 ------- 0 8.0 0.0 21 48
d 0.316536 6 9 ack 40 ------- 0 8.0 0.0 21 48
d 0.316536 5 9 ack 40 ------- 0 8.0 0.0 21 48
d 0.316536 4 9 ack 40 ------- 0 8.0 0.0 21 48
d 0.316536 3 9 ack 40 ------- 0 8.0 0.0 21 48
d 0.316536 2 9 ack 40 ------- 0 8.0 0.0 21 48
d 0.316536 1 9 ack 40 ------- 0 8.0 0.0 21 48
r 0.317704 9 0 ack 40 ------- 0 8.0 0.0 19 44
h 0.317704 0 9 tcp 1040 ------- 0 0.0 8.0 29 53
- 0.318608 0 9 tcp 1040 ------- 0 0.0 8.0 26 47
d 0.318612 7 9 tcp 1040 ------- 0 0.0 8.0 26 47
d 0.318612 6 9 tcp 1040 ------- 0 0.0 8.0 26 47
d 0.318612 5 9 tcp 1040 ------- 0 0.0 8.0 26 47
d 0.318612 4 9 tcp 1040 ------- 0 0.0 8.0 26 47
d 0.318612 3 9 tcp 1040 ------- 0 0.0 8.0 26 47
d 0.318612 2 9 tcp 1040 ------- 0 0.0 8.0 26 47
d 0.318612 1 9 tcp 1040 ------- 0 0.0 8.0 26 47
+ 0.318872 0 9 tcp 1040 ------- 0 0.0 8.0 27 49
r 0.31978 9 8 tcp 1040 ------- 0 0.0 8.0 24 42
h 0.31978 8 9 ack 40 ------- 0 8.0 0.0 24 54
+ 0.320948 8 9 ack 40 ------- 0 8.0 0.0 22 50
- 0.320948 8 9 ack 40 ------- 0 8.0 0.0 22 50
d 0.320952 7 9 ack 40 ------- 0 8.0 0.0 22 50
d 0.320952 6 9 ack 40 ------- 0 8.0 0.0 22 50
d 0.320952 5 9 ack 40 ------- 0 8.0 0.0 22 50
d 0.320952 4 9 ack 40 ------- 0 8.0 0.0 22 50
d 0.320952 3 9 ack 40 ------- 0 8.0 0.0 22 50
d 0.320952 2 9 ack 40 ------- 0 8.0 0.0 22 50
d 0.320952 1 9 ack 40 ------- 0 8.0 0.0 22 50
r 0.32212 9 0 ack 40 ------- 0 8.0 0.0 20 46
h 0.32212 0 9 tcp 1040 ------- 0 0.0 8.0 30 55
- 0.323024 0 9 tcp 1040 ------- 0 0.0 8.0 27 49
d 0.323028 7 9 tcp 1040 ------- 0 0.0 8.0 27 49
d 0.323028 6 9 tcp 1040 ------- 0 0.0 8.0 27 49
d 0.323028 5 9 tcp 1040 ------- 0 0.0 8.0 27 49
d 0.323028 4 9 tcp 1040 ------- 0 0.0 8.0 27 49
d 0.323028 3 9 tcp 1040 ------- 0 0.0 8.0 27 49
d 0.323028 2 9 tcp 1040 ------- 0 0.0 8.0 27 49
d 0.323028 1 9 tcp 1040 ------- 0 0.0 8.0 27 49
+ 0.323288 0 9 tcp 1040 ------- 0 0.0 8.0 28 51
r 0.324196 9 8 tcp 1040 ------- 0 0.0 8.0 25 45
h 0.324196 8 9 ack 40 ------- 0 8.0 0.0 25 56
+ 0.325364 8 9 ack 40 ------- 0 8.0 0.0 23 52
- 0.325364 8 9 ack 40 ------- 0 8.0 0.0 23 52
d 0.325368 7 9 ack 40 ------- 0 8.0 0.0 23 52
d 0.325368 6 9 ack 40 ------- 0 8.0 0.0 23 52
d 0.325368 5 9 ack 40 ------- 0 8.0 0.0 23 52
d 0.325368 4 9 ack 40 ------- 0 8.0 0.0 23 52
d 0.325368 3 9 ack 40 ------- 0 8.0 0.0 23 52
d 0.325368 2 9 ack 40 ------- 0 8.0 0.0 23 52
d 0.325368 1 9 ack 40 ------- 0 8.0 0.0 23 52
r 0.326536 9 0 ack 40 ------- 0 8.0 0.0 21 48
h 0.326536 0 9 tcp 1040 ------- 0 0.0 8.0 31 57
- 0.32744 0 9 tcp 1040 ------- 0 0.0 8.0 28 51
d 0.327444 7 9 tcp 1040 ------- 0 0.0 8.0 28 51
d 0.327444 6 9 tcp 1040 ------- 0 0.0 8.0 28 51
d 0.327444 5 9 tcp 1040 ------- 0 0.0 8.0 28 51
d 0.327444 4 9 tcp 1040 ------- 0 0.0 8.0 28 51
d 0.327444 3 9 tcp 1040 ------- 0 0.0 8.0 28 51
d 0.327444 2 9 tcp 1040 ------- 0 0.0 8.0 28 51
d 0.327444 1 9 tcp 1040 ------- 0 0.0 8.0 28 51
+ 0.327704 0 9 tcp 1040 ------- 0 0.0 8.0 29 53
r 0.328612 9 8 tcp 1040 ------- 0 0.0 8.0 26 47
h 0.328612 8 9 ack 40 ------- 0 8.0 0.0 26 58
+ 0.32978 8 9 ack 40 ------- 0 8.0 0.0 24 54
- 0.32978 8 9 ack 40 ------- 0 8.0 0.0 24 54
d 0.329784 7 9 ack 40 ------- 0 8.0 0.0 24 54
d 0.329784 6 9 ack 40 ------- 0 8.0 0.0 24 54
d 0.329784 5 9 ack 40 ------- 0 8.0 0.0 24 54
d 0.329784 4 9 ack 40 ------- 0 8.0 0.0 24 54
d 0.329784 3 9 ack 40 ------- 0 8.0 0.0 24 54
d 0.329784 2 9 ack 40 ------- 0 8.0 0.0 24 54
d 0.329784 1 9 ack 40 ------- 0 8.0 0.0 24 54
r 0.330952 9 0 ack 40 ------- 0 8.0 0.0 22 50
h 0.330952 0 9 tcp 1040 ------- 0 0.0 8.0 32 59
- 0.331856 0 9 tcp 1040 ------- 0 0.0 8.0 29 53
d 0.33186 7 9 tcp 1040 ------- 0 0.0 8.0 29 53
d 0.33186 6 9 tcp 1040 ------- 0 0.0 8.0 29 53
d 0.33186 5 9 tcp 1040 ------- 0 0.0 8.0 29 53
d 0.33186 4 9 tcp 1040 ------- 0 0.0 8.0 29 53
d 0.33186 3 9 tcp 1040 ------- 0 0.0 8.0 29 53
d 0.33186 2 9 tcp 1040 ------- 0 0.0 8.0 29 53
d 0.33186 1 9 tcp 1040 ------- 0 0.0 8.0 29 53
+ 0.33212 0 9 tcp 1040 ------- 0 0.0 8.0 30 55
r 0.333028 9 8 tcp 1040 ------- 0 0.0 8.0 27 49
h 0.333028 8 9 ack 40 ------- 0 8.0 0.0 27 60
+ 0.334196 8 9 ack 40 ------- 0 8.0 0.0 25 56
- 0.334196 8 9 ack 40 ------- 0 8.0 0.0 25 56
d 0.3342 7 9 ack 40 ------- 0 8.0 0.0 25 56
d 0.3342 6 9 ack 40 ------- 0 8.0 0.0 25 56
d 0.3342 5 9 ack 40 ------- 0 8.0 0.0 25 56
d 0.3342 4 9 ack 40 ------- 0 8.0 0.0 25 56
d 0.3342 3 9 ack 40 ------- 0 8.0 0.0 25 56
d 0.3342 2 9 ack 40 ------- 0 8.0 0.0 25 56
d 0.3342 1 9 ack 40 ------- 0 8.0 0.0 25 56
r 0.335368 9 0 ack 40 ------- 0 8.0 0.0 23 52
h 0.335368 0 9 tcp 1040 ------- 0 0.0 8.0 33 61
- 0.336272 0 9 tcp 1040 ------- 0 0.0 8.0 30 55
d 0.336276 7 9 tcp 1040 ------- 0 0.0 8.0 30 55
d 0.336276 6 9 tcp 1040 ------- 0 0.0 8.0 30 55
d 0.336276 5 9 tcp 1040 ------- 0 0.0 8.0 30 55
d 0.336276 4 9 tcp 1040 ------- 0 0.0 8.0 30 55
d 0.336276 3 9 tcp 1040 ------- 0 0.0 8.0 30 55
d 0.336276 2 9 tcp 1040 ------- 0 0.0 8.0 30 55
d 0.336276 1 9 tcp 1040 ------- 0 0.0 8.0 30 55
+ 0.336536 0 9 tcp 1040 ------- 0 0.0 8.0 31 57
r 0.337444 9 8 tcp 1040 ------- 0 0.0 8.0 28 51
h 0.337444 8 9 ack 40 ------- 0 8.0 0.0 28 62
+ 0.338612 8 9 ack 40 ------- 0 8.0 0.0 26 58
- 0.338612 8 9 ack 40 ------- 0 8.0 0.0 26 58
d 0.338616 7 9 ack 40 ------- 0 8.0 0.0 26 58
d 0.338616 6 9 ack 40 ------- 0 8.0 0.0 26 58
d 0.338616 5 9 ack 40 ------- 0 8.0 0.0 26 58
d 0.338616 4 9 ack 40 ------- 0 8.0 0.0 26 58
d 0.338616 3 9 ack 40 ------- 0 8.0 0.0 26 58
d 0.338616 2 9 ack 40 ------- 0 8.0 0.0 26 58
d 0.338616 1 9 ack 40 ------- 0 8.0 0.0 26 58
r 0.339784 9 0 ack 40 ------- 0 8.0 0.0 24 54
h 0.339784 0 9 tcp 1040 ------- 0 0.0 8.0 34 63
- 0.340688 0 9 tcp 1040 ------- 0 0.0 8.0 31 57
d 0.340692 7 9 tcp 1040 ------- 0 0.0 8.0 31 57
d 0.340692 6 9 tcp 1040 ------- 0 0.0 8.0 31 57
d 0.340692 5 9 tcp 1040 ------- 0 0.0 8.0 31 57
d 0.340692 4 9 tcp 1040 ------- 0 0.0 8.0 31 57
d 0.340692 3 9 tcp 1040 ------- 0 0.0 8.0 31 57